TITLE="30 deg wedge test "
VARIABLES="X" "Y"
ZONE I=2 F=POINT
  5.06756757e-01        0.00000000
  3.00000000e+00        1.43947466
ZONE I=2 F=POINT
  5.06756757e-01        0.00000000
  0.00000000e+00        0.00000000
