TITLE="30 deg wedge test "
VARIABLES="X" "Y"
ZONE I=2 F=POINT
  1.66666666e-01        0.00000000
  3.00000000e+00        1.63582576
ZONE I=2 F=POINT
  1.66666666e-01        0.00000000
  0.00000000e+00        0.00000000
